# vtk DataFile Version 4.0
vtk output
ASCII
DATASET UNSTRUCTURED_GRID
POINTS 18285 float
0.0000000e+00 0.0000000e+00 0.0000000e+00 
1.7129400e-04 0.0000000e+00 -2.0792100e-03 
6.3381600e-04 0.0000000e+00 -3.9575002e-03 
1.6645400e-03 0.0000000e+00 -6.3824402e-03 
4.7804900e-03 0.0000000e+00 -1.0711700e-02 
7.6279198e-03 0.0000000e+00 -1.3343900e-02 
1.0400000e-02 0.0000000e+00 -1.5303000e-02 
1.4360000e-02 0.0000000e+00 -1.7437100e-02 
2.0295700e-02 0.0000000e+00 -1.9700000e-02 
3.1599700e-02 0.0000000e+00 -2.2383900e-02 
4.5318000e-02 0.0000000e+00 -2.4592500e-02 
6.7240700e-02 0.0000000e+00 -2.7530801e-02 
8.6347602e-02 0.0000000e+00 -2.9687701e-02 
1.0034400e-01 0.0000000e+00 -3.1058701e-02 
1.1525800e-01 0.0000000e+00 -3.2345202e-02 
1.3560700e-01 0.0000000e+00 -3.3845101e-02 
1.5508200e-01 0.0000000e+00 -3.5043601e-02 
1.7090400e-01 0.0000000e+00 -3.5875700e-02 
1.9107801e-01 0.0000000e+00 -3.6789399e-02 
2.0729600e-01 0.0000000e+00 -3.7436102e-02 
2.2237900e-01 0.0000000e+00 -3.7969399e-02 
2.3382100e-01 0.0000000e+00 -3.8298201e-02 
2.4852100e-01 0.0000000e+00 -3.8648501e-02 
2.6310000e-01 0.0000000e+00 -3.8913801e-02 
2.7456200e-01 0.0000000e+00 -3.9063301e-02 
3.0487701e-01 0.0000000e+00 -3.9207298e-02 
3.2749200e-01 0.0000000e+00 -3.9070800e-02 
3.3936599e-01 0.0000000e+00 -3.8911901e-02 
3.5966700e-01 0.0000000e+00 -3.8502101e-02 
3.6834499e-01 0.0000000e+00 -3.8272399e-02 
3.8598099e-01 0.0000000e+00 -3.7703399e-02 
4.0117499e-01 0.0000000e+00 -3.7103400e-02 
4.1823599e-01 0.0000000e+00 -3.6325801e-02 
4.3572801e-01 0.0000000e+00 -3.5418000e-02 
4.5605499e-01 0.0000000e+00 -3.4233399e-02 
4.8080701e-01 0.0000000e+00 -3.2617498e-02 
5.0043797e-01 0.0000000e+00 -3.1211600e-02 
5.1664698e-01 0.0000000e+00 -2.9986400e-02 
5.3413200e-01 0.0000000e+00 -2.8592300e-02 
5.5049199e-01 0.0000000e+00 -2.7239000e-02 
5.7314903e-01 0.0000000e+00 -2.5289200e-02 
5.9464401e-01 0.0000000e+00 -2.3375699e-02 
6.2041599e-01 0.0000000e+00 -2.1017799e-02 
6.4154500e-01 0.0000000e+00 -1.8990301e-02 
6.5535903e-01 0.0000000e+00 -1.7608000e-02 
6.6792899e-01 0.0000000e+00 -1.6306501e-02 
6.8617201e-01 0.0000000e+00 -1.4353900e-02 
7.0288098e-01 0.0000000e+00 -1.2497700e-02 
7.1960598e-01 0.0000000e+00 -1.0581800e-02 
7.3164600e-01 0.0000000e+00 -9.1633797e-03 
7.5718099e-01 0.0000000e+00 -6.0567502e-03 
7.7362102e-01 0.0000000e+00 -4.0101502e-03 
7.8051001e-01 0.0000000e+00 -3.1502801e-03 
7.8851098e-01 0.0000000e+00 -2.1574299e-03 
7.9663301e-01 0.0000000e+00 -1.1555300e-03 
8.0166698e-01 0.0000000e+00 -5.3445401e-04 
8.0375397e-01 0.0000000e+00 -2.7710301e-04 
8.0599999e-01 0.0000000e+00 0.0000000e+00 
8.0321199e-01 0.0000000e+00 3.4390300e-04 
7.9982400e-01 0.0000000e+00 7.6182297e-04 
7.9548800e-01 0.0000000e+00 1.2967900e-03 
7.8768498e-01 0.0000000e+00 2.2592901e-03 
7.7653098e-01 0.0000000e+00 3.6469300e-03 
7.6558900e-01 0.0000000e+00 5.0128102e-03 
7.5285900e-01 0.0000000e+00 6.5921498e-03 
7.3450100e-01 0.0000000e+00 8.8207005e-03 
7.0683700e-01 0.0000000e+00 1.2050200e-02 
6.8904001e-01 0.0000000e+00 1.4040500e-02 
6.7054999e-01 0.0000000e+00 1.6029300e-02 
6.5595299e-01 0.0000000e+00 1.7547300e-02 
6.3731098e-01 0.0000000e+00 1.9405499e-02 
6.2462002e-01 0.0000000e+00 2.0624699e-02 
6.0463601e-01 0.0000000e+00 2.2469601e-02 
5.8917302e-01 0.0000000e+00 2.3869300e-02 
5.7359099e-01 0.0000000e+00 2.5250601e-02 
5.5356300e-01 0.0000000e+00 2.6980400e-02 
5.4161298e-01 0.0000000e+00 2.7981199e-02 
5.2179098e-01 0.0000000e+00 2.9580200e-02 
5.0543803e-01 0.0000000e+00 3.0842001e-02 
4.8873499e-01 0.0000000e+00 3.2059401e-02 
4.6854600e-01 0.0000000e+00 3.3440601e-02 
4.4051099e-01 0.0000000e+00 3.5151500e-02 
4.2276499e-01 0.0000000e+00 3.6101401e-02 
4.0366101e-01 0.0000000e+00 3.6997300e-02 
3.9239100e-01 0.0000000e+00 3.7461899e-02 
3.7114200e-01 0.0000000e+00 3.8191900e-02 
3.5795999e-01 0.0000000e+00 3.8543802e-02 
3.3641100e-01 0.0000000e+00 3.8957600e-02 
3.2249400e-01 0.0000000e+00 3.9119601e-02 
3.0578700e-01 0.0000000e+00 3.9206099e-02 
2.9548600e-01 0.0000000e+00 3.9202500e-02 
2.7672699e-01 0.0000000e+00 3.9086401e-02 
2.5791201e-01 0.0000000e+00 3.8829099e-02 
2.4164601e-01 0.0000000e+00 3.8494900e-02 
2.1341400e-01 0.0000000e+00 3.7662901e-02 
1.9008200e-01 0.0000000e+00 3.6748402e-02 
1.6983400e-01 0.0000000e+00 3.5823502e-02 
1.5411200e-01 0.0000000e+00 3.4988102e-02 
1.3646500e-01 0.0000000e+00 3.3903401e-02 
1.1975600e-01 0.0000000e+00 3.2700699e-02 
1.0451500e-01 0.0000000e+00 3.1436101e-02 
8.7375998e-02 0.0000000e+00 2.9794700e-02 
7.4683301e-02 0.0000000e+00 2.8414600e-02 
5.9111498e-02 0.0000000e+00 2.6505100e-02 
4.6215899e-02 0.0000000e+00 2.4733700e-02 
3.5399199e-02 0.0000000e+00 2.3026800e-02 
2.3562200e-02 0.0000000e+00 2.0648800e-02 
1.4456200e-02 0.0000000e+00 1.7467100e-02 
8.7997299e-03 0.0000000e+00 1.4236800e-02 
6.1375699e-03 0.0000000e+00 1.2078800e-02 
4.0712398e-03 0.0000000e+00 9.9197403e-03 
2.0254899e-03 0.0000000e+00 7.0129801e-03 
8.0517901e-04 0.0000000e+00 4.4430001e-03 
2.5706901e-04 0.0000000e+00 2.5722701e-03 
4.2197600e-01 7.1206403e-01 -1.2979700e-02 
4.1869801e-01 7.1251303e-01 -1.1056300e-02 
4.1881001e-01 7.0867097e-01 -1.2413400e-02 
6.6744000e-01 1.2429700e-01 -1.9712299e-02 
6.7302698e-01 1.4110300e-01 -1.9608499e-02 
6.5902901e-01 1.3736300e-01 -2.0817401e-02 
8.3327699e-01 9.7121000e-02 0.0000000e+00 
8.3186001e-01 9.6539699e-02 -1.5528600e-04 
8.3275098e-01 9.5247701e-02 0.0000000e+00 
9.4587898e-01 6.5410697e-01 -5.4319799e-03 
9.4192499e-01 6.3581800e-01 -5.2863900e-03 
9.5622802e-01 6.4448798e-01 -3.8178400e-03 
8.4099698e-01 1.5102699e-01 -9.1185002e-04 
8.4170401e-01 1.4571600e-01 -6.4162503e-04 
8.4440100e-01 1.4652801e-01 -3.4070699e-04 
1.3108200e-01 2.2617200e-01 -3.3646200e-03 
1.3202401e-01 2.2719000e-01 -4.3815500e-03 
1.3188200e-01 2.2777601e-01 -2.8663301e-03 
1.4295000e-01 2.3756599e-01 -1.1167300e-02 
1.4616500e-01 2.3794100e-01 -1.3493200e-02 
1.4582300e-01 2.3994800e-01 -1.2426100e-02 
4.6155301e-01 1.2495700e-01 -3.5097901e-02 
4.4007501e-01 1.4595900e-01 -3.5991501e-02 
4.3763900e-01 1.2485200e-01 -3.6068302e-02 
6.1532599e-01 1.0467600e+00 -1.1598800e-02 
6.1208498e-01 1.0498400e+00 -9.1130501e-03 
6.1148298e-01 1.0451500e+00 -1.0345900e-02 
6.3455701e-01 1.0986800e+00 -1.7323300e-03 
6.3472599e-01 1.0982701e+00 -2.9986701e-03 
6.3565302e-01 1.0999300e+00 -2.9195100e-03 
6.3606101e-01 1.0991900e+00 -4.5624902e-03 
6.3563001e-01 1.0977200e+00 -5.1839398e-03 
6.3723898e-01 1.0987000e+00 -6.4416202e-03 
9.3826401e-01 1.0242600e+00 -1.6649101e-02 
9.5939302e-01 1.0268700e+00 -1.4858800e-02 
9.5231301e-01 1.0422900e+00 -1.5841000e-02 
9.3786198e-01 1.0516200e+00 -1.7265100e-02 
9.5565897e-01 1.0636400e+00 -1.6030200e-02 
2.3964700e-01 4.1346201e-01 -4.3828902e-03 
2.3842700e-01 4.1235301e-01 -2.6759801e-03 
2.3931301e-01 4.1169101e-01 -5.7815602e-03 
6.3202302e-03 6.5837000e-03 -7.8077102e-03 
5.4422100e-03 7.7415500e-03 -4.8804102e-03 
4.7239098e-03 5.8969501e-03 -5.6601600e-03 
7.6810300e-02 1.3294700e-01 -1.0850501e-03 
7.7224799e-02 1.3375500e-01 0.0000000e+00 
7.6081403e-02 1.3177501e-01 0.0000000e+00 
1.0533600e+00 8.8714099e-01 -2.2493600e-04 
1.0503900e+00 8.8518101e-01 -5.2835903e-04 
1.0523300e+00 8.8399303e-01 -2.4335300e-04 
3.3300301e-01 5.4031003e-01 -1.7062200e-02 
3.2687899e-01 5.3627002e-01 -1.6103201e-02 
3.3188200e-01 5.3174001e-01 -1.7901801e-02 
8.2845801e-01 1.3034099e-01 -1.7513800e-03 
8.2276100e-01 1.2798600e-01 -2.3746700e-03 
8.2920402e-01 1.2549400e-01 -1.4905500e-03 
8.3198500e-01 1.2830301e-01 -1.2349800e-03 
8.3086598e-01 1.3291299e-01 -1.5316500e-03 
5.5259001e-01 9.5131600e-01 -7.2139301e-03 
5.5375099e-01 9.4904399e-01 -9.3198996e-03 
5.5529797e-01 9.5238900e-01 -9.0290103e-03 
5.0787097e-01 8.7917203e-01 -2.0454400e-03 
5.0660998e-01 8.7724298e-01 -1.3205500e-03 
5.0711203e-01 8.7748700e-01 -2.7940299e-03 
7.9020602e-01 6.3607800e-01 -2.0755500e-02 
7.9363698e-01 6.5351701e-01 -2.0845201e-02 
7.7319598e-01 6.5266502e-01 -2.2485400e-02 
1.0751400e+00 9.8270297e-01 -8.5529301e-04 
1.0788500e+00 9.8240399e-01 -3.8334500e-04 
1.0796400e+00 9.8536801e-01 -3.8949100e-04 
1.3643301e-01 2.3561200e-01 -2.9685500e-03 
1.3684601e-01 2.3676901e-01 -1.7455900e-03 
1.3600500e-01 2.3556399e-01 0.0000000e+00 
6.0686499e-01 1.0499099e+00 -3.1971000e-03 
6.0737997e-01 1.0515200e+00 -1.9757601e-03 
6.0628301e-01 1.0501000e+00 0.0000000e+00 
8.1015199e-01 1.4784700e-02 0.0000000e+00 
8.0933702e-01 1.6124301e-02 -1.4746199e-04 
8.0848700e-01 1.4682100e-02 -2.0113400e-04 
9.5561898e-01 5.5317998e-01 -7.0606702e-04 
9.5799100e-01 5.4992002e-01 -3.0431000e-04 
9.5915598e-01 5.5171299e-01 -2.2240799e-04 
1.0439500e+00 8.5371000e-01 -2.2844299e-04 
1.0406700e+00 8.5465002e-01 -6.7146198e-04 
1.0412199e+00 8.5197699e-01 -5.0830899e-04 
4.4291300e-01 7.6233202e-01 -6.9575799e-03 
4.4505501e-01 7.6313102e-01 -8.7206196e-03 
4.4344899e-01 7.6419002e-01 -6.2585399e-03 
5.3715700e-01 9.2321402e-01 -8.0461502e-03 
5.3640902e-01 9.2528301e-01 -5.9329499e-03 
5.3530502e-01 9.2400402e-01 -5.4207100e-03 
2.5213501e-01 1.1296800e-01 -3.5415102e-02 
2.3262601e-01 1.1188900e-01 -3.4593701e-02 
2.4721900e-01 9.3987100e-02 -3.5860199e-02 
6.1110097e-01 1.0572000e+00 -3.2639799e-03 
6.1240602e-01 1.0584400e+00 -4.4151200e-03 
6.1209202e-01 1.0589800e+00 -3.1756200e-03 
4.3741599e-01 7.4155402e-01 -1.2095600e-02 
4.4021699e-01 7.3885602e-01 -1.3962600e-02 
4.4257900e-01 7.4289399e-01 -1.3954800e-02 
7.0001298e-01 5.0292200e-01 -2.5303500e-02 
6.9582599e-01 4.8058999e-01 -2.5212700e-02 
7.1550399e-01 4.7935599e-01 -2.3642899e-02 
1.0911000e+00 1.0233001e+00 -2.8744800e-04 
1.0890599e+00 1.0213500e+00 -4.7406301e-04 
1.0926501e+00 1.0206100e+00 0.0000000e+00 
1.0359800e+00 9.8116601e-01 -5.6028198e-03 
1.0197999e+00 9.7387803e-01 -7.2647301e-03 
1.0265800e+00 9.6195900e-01 -6.0839499e-03 
4.6486101e-01 7.9487199e-01 -9.8510701e-03 
4.6296901e-01 7.9192698e-01 -9.7174402e-03 
4.6685201e-01 7.9055101e-01 -1.2466100e-02 
[...]
POINT_DATA 18285
FIELD FieldData 2
DISPLACEMENT 3 18285  float
0.0000000e+00 0.0000000e+00 0.0000000e+00 
0.0000000e+00 0.0000000e+00 0.0000000e+00 
0.0000000e+00 0.0000000e+00 0.0000000e+00 
0.0000000e+00 0.0000000e+00 0.0000000e+00 
0.0000000e+00 0.0000000e+00 0.0000000e+00 
0.0000000e+00 0.0000000e+00 0.0000000e+00 
0.0000000e+00 0.0000000e+00 0.0000000e+00 
0.0000000e+00 0.0000000e+00 0.0000000e+00 
0.0000000e+00 0.0000000e+00 0.0000000e+00 
0.0000000e+00 0.0000000e+00 0.0000000e+00 
0.0000000e+00 0.0000000e+00 0.0000000e+00 
0.0000000e+00 0.0000000e+00 0.0000000e+00 
0.0000000e+00 0.0000000e+00 0.0000000e+00 
0.0000000e+00 0.0000000e+00 0.0000000e+00 
0.0000000e+00 0.0000000e+00 0.0000000e+00 
0.0000000e+00 0.0000000e+00 0.0000000e+00 
0.0000000e+00 0.0000000e+00 0.0000000e+00 
0.0000000e+00 0.0000000e+00 0.0000000e+00 
0.0000000e+00 0.0000000e+00 0.0000000e+00 
0.0000000e+00 0.0000000e+00 0.0000000e+00 
0.0000000e+00 0.0000000e+00 0.0000000e+00 
0.0000000e+00 0.0000000e+00 0.0000000e+00 
0.0000000e+00 0.0000000e+00 0.0000000e+00 
0.0000000e+00 0.0000000e+00 0.0000000e+00 
0.0000000e+00 0.0000000e+00 0.0000000e+00 
0.0000000e+00 0.0000000e+00 0.0000000e+00 
0.0000000e+00 0.0000000e+00 0.0000000e+00 
0.0000000e+00 0.0000000e+00 0.0000000e+00 
0.0000000e+00 0.0000000e+00 0.0000000e+00 
0.0000000e+00 0.0000000e+00 0.0000000e+00 
0.0000000e+00 0.0000000e+00 0.0000000e+00 
0.0000000e+00 0.0000000e+00 0.0000000e+00 
0.0000000e+00 0.0000000e+00 0.0000000e+00 
0.0000000e+00 0.0000000e+00 0.0000000e+00 
0.0000000e+00 0.0000000e+00 0.0000000e+00 
0.0000000e+00 0.0000000e+00 0.0000000e+00 
0.0000000e+00 0.0000000e+00 0.0000000e+00 
0.0000000e+00 0.0000000e+00 0.0000000e+00 
0.0000000e+00 0.0000000e+00 0.0000000e+00 
0.0000000e+00 0.0000000e+00 0.0000000e+00 
0.0000000e+00 0.0000000e+00 0.0000000e+00 
0.0000000e+00 0.0000000e+00 0.0000000e+00 
0.0000000e+00 0.0000000e+00 0.0000000e+00 
0.0000000e+00 0.0000000e+00 0.0000000e+00 
0.0000000e+00 0.0000000e+00 0.0000000e+00 
0.0000000e+00 0.0000000e+00 0.0000000e+00 
0.0000000e+00 0.0000000e+00 0.0000000e+00 
0.0000000e+00 0.0000000e+00 0.0000000e+00 
0.0000000e+00 0.0000000e+00 0.0000000e+00 
0.0000000e+00 0.0000000e+00 0.0000000e+00 
0.0000000e+00 0.0000000e+00 0.0000000e+00 
0.0000000e+00 0.0000000e+00 0.0000000e+00 
0.0000000e+00 0.0000000e+00 0.0000000e+00 
0.0000000e+00 0.0000000e+00 0.0000000e+00 
0.0000000e+00 0.0000000e+00 0.0000000e+00 
0.0000000e+00 0.0000000e+00 0.0000000e+00 
0.0000000e+00 0.0000000e+00 0.0000000e+00 
0.0000000e+00 0.0000000e+00 0.0000000e+00 
0.0000000e+00 0.0000000e+00 0.0000000e+00 
0.0000000e+00 0.0000000e+00 0.0000000e+00 
0.0000000e+00 0.0000000e+00 0.0000000e+00 
0.0000000e+00 0.0000000e+00 0.0000000e+00 
0.0000000e+00 0.0000000e+00 0.0000000e+00 
0.0000000e+00 0.0000000e+00 0.0000000e+00 
0.0000000e+00 0.0000000e+00 0.0000000e+00 
0.0000000e+00 0.0000000e+00 0.0000000e+00 
0.0000000e+00 0.0000000e+00 0.0000000e+00 
0.0000000e+00 0.0000000e+00 0.0000000e+00 
0.0000000e+00 0.0000000e+00 0.0000000e+00 
0.0000000e+00 0.0000000e+00 0.0000000e+00 
0.0000000e+00 0.0000000e+00 0.0000000e+00 
0.0000000e+00 0.0000000e+00 0.0000000e+00 
0.0000000e+00 0.0000000e+00 0.0000000e+00 
0.0000000e+00 0.0000000e+00 0.0000000e+00 
0.0000000e+00 0.0000000e+00 0.0000000e+00 
0.0000000e+00 0.0000000e+00 0.0000000e+00 
0.0000000e+00 0.0000000e+00 0.0000000e+00 
0.0000000e+00 0.0000000e+00 0.0000000e+00 
0.0000000e+00 0.0000000e+00 0.0000000e+00 
0.0000000e+00 0.0000000e+00 0.0000000e+00 
0.0000000e+00 0.0000000e+00 0.0000000e+00 
0.0000000e+00 0.0000000e+00 0.0000000e+00 
0.0000000e+00 0.0000000e+00 0.0000000e+00 
0.0000000e+00 0.0000000e+00 0.0000000e+00 
0.0000000e+00 0.0000000e+00 0.0000000e+00 
0.0000000e+00 0.0000000e+00 0.0000000e+00 
0.0000000e+00 0.0000000e+00 0.0000000e+00 
0.0000000e+00 0.0000000e+00 0.0000000e+00 
0.0000000e+00 0.0000000e+00 0.0000000e+00 
0.0000000e+00 0.0000000e+00 0.0000000e+00 
0.0000000e+00 0.0000000e+00 0.0000000e+00 
0.0000000e+00 0.0000000e+00 0.0000000e+00 
0.0000000e+00 0.0000000e+00 0.0000000e+00 
0.0000000e+00 0.0000000e+00 0.0000000e+00 
0.0000000e+00 0.0000000e+00 0.0000000e+00 
0.0000000e+00 0.0000000e+00 0.0000000e+00 
0.0000000e+00 0.0000000e+00 0.0000000e+00 
0.0000000e+00 0.0000000e+00 0.0000000e+00 
0.0000000e+00 0.0000000e+00 0.0000000e+00 
0.0000000e+00 0.0000000e+00 0.0000000e+00 
0.0000000e+00 0.0000000e+00 0.0000000e+00 
0.0000000e+00 0.0000000e+00 0.0000000e+00 
0.0000000e+00 0.0000000e+00 0.0000000e+00 
0.0000000e+00 0.0000000e+00 0.0000000e+00 
0.0000000e+00 0.0000000e+00 0.0000000e+00 
0.0000000e+00 0.0000000e+00 0.0000000e+00 
0.0000000e+00 0.0000000e+00 0.0000000e+00 
0.0000000e+00 0.0000000e+00 0.0000000e+00 
-9.4601726e-10 2.8497300e-07 -8.8572534e-08 
0.0000000e+00 0.0000000e+00 0.0000000e+00 
0.0000000e+00 0.0000000e+00 0.0000000e+00 
0.0000000e+00 0.0000000e+00 0.0000000e+00 
0.0000000e+00 0.0000000e+00 0.0000000e+00 
0.0000000e+00 0.0000000e+00 0.0000000e+00 
1.3554681e-04 5.8922288e-04 1.8573586e-02 
1.1105426e-04 5.0050876e-04 1.8550968e-02 
1.2880196e-04 5.6087953e-04 1.8375739e-02 
6.2352051e-06 3.0477962e-04 1.0263821e-03 
1.0095372e-05 3.3432417e-04 1.2977790e-03 
1.1552335e-05 3.4516689e-04 1.2257049e-03 
-3.1884024e-06 8.2811466e-06 5.6672038e-04 
-3.3515917e-06 1.0369015e-05 5.6041579e-04 
-3.1917393e-06 8.2384486e-06 5.4193434e-04 
1.1366380e-05 3.0245152e-04 2.0978902e-02 
1.1107898e-05 2.9259681e-04 2.0057406e-02 
-7.0121314e-07 2.2445619e-04 2.0590065e-02 
-4.2218167e-06 3.0068524e-05 1.4916478e-03 
-4.1382100e-06 2.3603634e-05 1.3823380e-03 
-4.0978607e-06 1.7925779e-05 1.3982196e-03 
1.4659075e-05 3.0532305e-05 9.9789770e-04 
2.0144165e-05 4.1119885e-05 1.0135080e-03 
1.2141501e-05 2.5851508e-05 1.0187459e-03 
5.9134920e-05 1.2057357e-04 1.1878293e-03 
7.2120289e-05 1.4830910e-04 1.2110778e-03 
6.6985391e-05 1.3760076e-04 1.2319158e-03 
4.6778299e-05 4.2261652e-04 8.4609329e-04 
6.4892462e-05 4.7632650e-04 1.0878746e-03 
5.1253344e-05 4.1402175e-04 8.1487594e-04 
5.2889802e-05 6.3889776e-04 3.8195956e-02 
2.6233225e-05 5.0321466e-04 3.8329776e-02 
4.0187515e-05 5.7015568e-04 3.8067065e-02 
-5.8683021e-05 1.0315705e-04 4.1237343e-02 
-4.5780103e-05 1.7242167e-04 4.1216612e-02 
-4.6827998e-05 1.6819900e-04 4.1316994e-02 
-3.0085455e-05 2.5809166e-04 4.1280624e-02 
-2.3550829e-05 2.9201954e-04 4.1195717e-02 
-1.1010340e-05 3.6096864e-04 4.1265775e-02 
8.7395187e-05 9.3824201e-04 4.0150829e-02 
6.9777889e-05 8.4456959e-04 4.0489368e-02 
7.7486489e-05 8.9776417e-04 4.1253548e-02 
9.0183144e-05 9.7351259e-04 4.1620858e-02 
7.6842472e-05 9.0975629e-04 4.2436324e-02 
3.5063778e-05 1.0584133e-04 5.2711195e-03 
1.7360253e-05 6.1659106e-05 5.2292403e-03 
4.9331036e-05 1.4117666e-04 5.2217045e-03 
2.3611060e-08 -2.7143159e-07 -6.4338155e-07 
7.4098573e-08 -2.2684785e-07 -7.6714576e-07 
3.3862865e-08 -1.8609454e-07 -5.0018150e-07 
1.3615016e-06 1.9560025e-06 1.6648465e-04 
-1.2080765e-06 -1.7356627e-06 1.7020293e-04 
-1.2046522e-06 -1.6954245e-06 1.6078188e-04 
-5.2343130e-05 6.6129316e-05 3.3880875e-02 
-4.9367776e-05 8.1854720e-05 3.3749856e-02 
-5.1844741e-05 6.6936227e-05 3.3704411e-02 
1.8603772e-04 6.0646661e-04 1.0315462e-02 
1.7478890e-04 5.6554849e-04 1.0095487e-02 
1.9364114e-04 6.2711380e-04 9.9937692e-03 
-4.6566006e-06 4.0741965e-05 1.0955441e-03 
-5.0450835e-06 5.1323248e-05 1.0578739e-03 
-4.6069126e-06 3.5100256e-05 1.0090659e-03 
-4.4092221e-06 3.1355143e-05 1.0559880e-03 
-4.4074800e-06 3.7742004e-05 1.1401447e-03 
2.5321338e-05 3.8667949e-04 3.2317005e-02 
5.0086535e-05 4.9920444e-04 3.2208748e-02 
4.6027992e-05 4.8422499e-04 3.2406349e-02 
-2.5192991e-05 1.0386941e-04 2.7950985e-02 
-3.3896242e-05 6.6031927e-05 2.7834563e-02 
-1.5763961e-05 1.4260813e-04 2.7853575e-02 
1.4288435e-04 9.9421013e-04 1.8875243e-02 
1.4461669e-04 1.0100887e-03 1.9726766e-02 
1.6148083e-04 1.0809078e-03 1.9512800e-02 
-5.6910805e-05 1.0391779e-04 3.9190259e-02 
-6.1271079e-05 7.9012112e-05 3.9208576e-02 
-6.1543469e-05 7.9466590e-05 3.9375115e-02 
1.3151574e-05 2.8608069e-05 1.1276834e-03 
6.3425055e-06 1.5517418e-05 1.1427993e-03 
-3.4541392e-06 -3.3669137e-06 1.1246778e-03 
-3.6296213e-05 1.7994962e-04 3.8277853e-02 
-4.9490172e-05 1.1338290e-04 3.8371410e-02 
-7.0310773e-05 5.4727511e-06 3.8282007e-02 
-9.2196069e-07 3.2762809e-06 -9.1799002e-06 
-1.0137127e-06 3.4758723e-06 -8.0528625e-06 
-9.8358248e-07 3.2185928e-06 -8.3791683e-06 
-1.8761675e-05 6.7834051e-05 1.6245112e-02 
-2.1304606e-05 4.9440663e-05 1.6111137e-02 
-2.2012207e-05 4.5836226e-05 1.6201852e-02 
-4.8771326e-05 6.4652122e-05 3.2025713e-02 
-4.4837452e-05 8.7678251e-05 3.2045681e-02 
-4.6046011e-05 7.9077683e-05 3.1909548e-02 
5.2385400e-05 3.2872017e-04 2.1223506e-02 
7.4986849e-05 4.1407990e-04 2.1290369e-02 
4.3163345e-05 2.9560112e-04 2.1320406e-02 
4.0443570e-05 4.2602047e-04 3.0631831e-02 
1.5086658e-05 3.1408868e-04 3.0732935e-02 
9.2326136e-06 2.8667619e-04 3.0651577e-02 
6.1644801e-05 2.4196650e-04 4.1737358e-04 
5.8257225e-05 2.1901214e-04 3.7613657e-04 
4.8571004e-05 2.0237318e-04 2.8555124e-04 
-3.6709498e-05 1.8409942e-04 3.8721766e-02 
-2.4771658e-05 2.4709577e-04 3.8803477e-02 
-3.7908143e-05 1.7939307e-04 3.8829684e-02 
1.2076317e-04 5.6559074e-04 2.0156523e-02 
1.4449560e-04 6.5298169e-04 2.0065458e-02 
1.4376600e-04 6.5536198e-04 2.0287670e-02 
1.6060067e-04 1.0370201e-03 1.2337024e-02 
1.5425999e-04 1.0075002e-03 1.1414622e-02 
1.3865656e-04 9.5271936e-04 1.1496744e-02 
-6.6788365e-05 7.5768694e-05 4.1522659e-02 
-6.4830092e-05 8.5559615e-05 4.1398704e-02 
-6.9156093e-05 6.0439597e-05 4.1392051e-02 
-1.2606826e-05 3.5411509e-04 3.8745325e-02 
3.6245708e-06 4.4096762e-04 3.8204566e-02 
-6.0578705e-06 3.7801196e-04 3.7628289e-02 
8.5141110e-05 4.8168661e-04 2.3104439e-02 
8.3917381e-05 4.7390565e-04 2.2933852e-02 
1.1862862e-04 6.0946873e-04 2.2916313e-02 
2.7049187e-04 1.3634771e-03 1.8367754e-02 
2.7501315e-04 1.3552462e-03 1.8296245e-02 
2.6869049e-04 1.3559225e-03 1.7672805e-02 
2.7417863e-04 1.3570059e-03 1.9173108e-02 
2.7037130e-04 1.3705650e-03 1.9056812e-02 
2.7202527e-04 1.3643986e-03 1.9806881e-02 
1.1452661e-04 4.8671628e-04 1.6921543e-02 
1.2682720e-04 5.3274538e-04 1.7071785e-02 
8.7145767e-05 3.9568747e-04 1.7160950e-02 
1.8875617e-04 1.2059648e-03 2.1270525e-02 
1.8150422e-04 1.1670715e-03 2.0273367e-02 
1.7140991e-04 1.1413438e-03 2.1362651e-02 
1.8333257e-04 9.4426004e-04 5.4510329e-03 
1.9038282e-04 9.4031263e-04 5.3091263e-03 
1.6866156e-04 9.0342108e-04 4.9005784e-03 
9.7036311e-05 7.1544322e-04 3.1373966e-03 
1.1912780e-04 7.7109784e-04 3.5089883e-03 
1.0482675e-04 7.3034415e-04 3.0814817e-03 
2.6057137e-04 9.4488601e-04 7.4252249e-03 
2.5318321e-04 9.3287538e-04 6.8372027e-03 
2.5474516e-04 9.7215432e-04 6.9980612e-03 
4.9931086e-06 5.9938920e-04 5.0543487e-02 
4.8333868e-06 5.9636758e-04 5.0372113e-02 
4.4195090e-07 5.7154818e-04 5.0424252e-02 
-8.0552869e-05 7.4236559e-05 4.7847096e-02 
-7.8614205e-05 8.6285996e-05 4.7922365e-02 
-7.6968929e-05 9.4293726e-05 4.7802910e-02 
2.3116113e-04 8.3763798e-04 1.3181652e-02 
2.3345645e-04 8.6008536e-04 1.3710487e-02 
2.0960913e-04 7.6121441e-04 1.3667686e-02 
7.3284624e-05 4.1030740e-04 2.1477625e-02 
3.6173114e-05 2.7173432e-04 2.1497615e-02 
4.9340975e-05 3.1962025e-04 2.1400509e-02 
2.7662874e-05 2.3708121e-04 2.1232620e-02 
9.7919974e-06 1.7106019e-04 2.1231823e-02 
2.1074318e-05 2.1136040e-04 2.1110287e-02 
5.3997024e-05 9.7350610e-05 3.4413757e-04 
6.0071357e-05 1.1405945e-04 3.6008333e-04 
6.2713421e-05 1.1952649e-04 4.0984969e-04 
2.4948331e-05 4.3015360e-05 4.3971796e-04 
2.3555078e-05 4.0849038e-05 4.6569059e-04 
1.6978411e-05 2.9466402e-05 4.5254131e-04 
1.7157945e-05 3.3810044e-05 8.8041875e-04 
6.3616544e-06 1.3917043e-05 8.8297593e-04 
1.1023260e-05 2.2313245e-05 8.6520711e-04 
5.7560370e-05 1.9063300e-04 3.2569477e-04 
6.9499074e-05 2.2498834e-04 4.4152036e-04 
6.6489483e-05 1.9714850e-04 3.9868901e-04 
2.0698401e-04 1.3616704e-03 2.8931960e-02 
2.0845844e-04 1.3775581e-03 2.9845888e-02 
2.1677527e-04 1.3898285e-03 2.8685031e-02 
-4.5948691e-06 3.6303734e-04 3.9427299e-02 
2.5051819e-05 5.1804940e-04 3.9371621e-02 
3.6670674e-06 4.0834668e-04 3.9526027e-02 
8.6155436e-05 4.3872988e-04 2.0237936e-02 
5.2533247e-05 3.1653218e-04 2.0305950e-02 
6.1000152e-05 3.4558147e-04 2.0183405e-02 
-7.0078953e-05 9.1767419e-05 4.4357430e-02 
-7.0505121e-05 9.2389651e-05 4.4608433e-02 
-6.6927532e-05 1.1133715e-04 4.4465128e-02 
-7.0082028e-06 3.1110780e-05 4.4946284e-03 
-6.2514232e-06 4.4271364e-05 4.5600384e-03 
-6.3949697e-06 3.8320344e-05 4.3948563e-03 
-1.8750708e-05 2.4849610e-04 3.2819446e-02 
-1.4826840e-05 2.6710180e-04 3.2480858e-02 
-2.2778475e-05 2.1946713e-04 3.2353252e-02 
-1.0250494e-05 2.5557098e-04 2.9158108e-02 
-1.5498892e-05 2.1878476e-04 2.8676126e-02 
-2.2552060e-05 1.8171403e-04 2.8998496e-02 
1.2810098e-04 6.5323117e-04 2.3190090e-02 
1.0813567e-04 5.7400402e-04 2.3199525e-02 
1.1231110e-04 5.9377361e-04 2.3381470e-02 
1.3320436e-04 6.7617721e-04 2.3296950e-02 
2.6415786e-04 1.3390561e-03 1.6713113e-02 
2.7174788e-04 1.3354917e-03 1.6579174e-02 
2.6828231e-04 1.3262887e-03 1.5803022e-02 
3.0165005e-05 1.1587994e-04 7.9947477e-03 
3.2539858e-05 1.2172907e-04 7.9127653e-03 
5.0575611e-05 1.7145215e-04 7.9607582e-03 
1.4595808e-04 5.2265055e-04 1.2853672e-02 
1.2840173e-04 4.6851544e-04 1.2998403e-02 
1.0147944e-04 3.8142948e-04 1.2929588e-02 
-2.7024714e-06 1.0295340e-04 7.4954382e-03 
1.1600046e-06 1.4210143e-04 7.6419390e-03 
2.6412818e-07 1.2960898e-04 7.3535200e-03 
2.2986268e-04 9.9546893e-04 1.9126406e-02 
2.0853982e-04 9.1984111e-04 2.0031566e-02 
1.9926517e-04 8.6486619e-04 1.9599855e-02 
2.0347197e-04 1.2941493e-03 3.1866748e-02 
2.1280535e-04 1.3329703e-03 3.0983329e-02 
2.0468098e-04 1.3290924e-03 3.2274876e-02 
-2.8119641e-05 2.2718791e-04 3.8634628e-02 
-4.6273413e-05 1.3327053e-04 3.8623873e-02 
1.6190895e-04 1.0977201e-03 3.3500217e-02 
1.6128509e-04 1.0726323e-03 3.2904774e-02 
1.7692056e-04 1.1479926e-03 3.2481324e-02 
9.6047675e-05 4.6621941e-04 1.9725578e-02 
1.1360890e-04 5.2617694e-04 1.9481806e-02 
1.2586986e-04 5.7475368e-04 1.9644331e-02 
-7.0502043e-05 8.7727960e-05 4.4226270e-02 
-6.4259286e-05 1.2478764e-04 4.4302471e-02 
1.2551177e-04 1.1790534e-03 4.2352181e-02 
1.1397379e-04 1.1325647e-03 4.3565851e-02 
1.2509277e-04 1.1904878e-03 4.3385003e-02 
3.9415303e-05 4.8598115e-04 6.5423427e-03 
3.3480035e-05 4.5121633e-04 5.9735533e-03 
3.2338576e-05 4.2418943e-04 6.6286111e-03 
3.1997224e-05 1.1756786e-04 7.6135346e-03 
2.0297988e-05 8.5651147e-05 7.5708316e-03 
4.4173579e-05 1.5006024e-04 7.5668641e-03 
8.1329010e-05 6.9868536e-04 1.0038440e-02 
7.1008202e-05 6.4317492e-04 1.0234349e-02 
8.1264319e-05 6.9570419e-04 1.0999474e-02 
3.9708415e-05 1.7433830e-04 1.1539913e-02 
4.8325717e-05 1.9982534e-04 1.1478865e-02 
6.4250882e-05 2.4852264e-04 1.1545105e-02 
-4.6185698e-05 1.0205464e-04 3.6164664e-02 
-6.6153167e-05 3.5739138e-06 3.6170576e-02 
-6.5995060e-05 3.5113421e-06 3.6093310e-02 
-7.8688136e-06 1.8862826e-05 4.4912538e-03 
-7.5474873e-06 2.2846221e-05 4.4699805e-03 
-7.7754285e-06 1.8754274e-05 4.4281008e-03 
-9.4668358e-06 3.1714517e-05 6.9298246e-03 
-9.6092454e-06 2.8959174e-05 6.8432773e-03 
-1.0315817e-05 2.2479433e-05 6.8684099e-03 
-5.4239222e-06 6.5873995e-05 6.0983631e-03 
-2.9228563e-06 9.6821903e-05 6.1397534e-03 
-4.5808324e-06 7.7214550e-05 5.9589325e-03 
1.9514727e-04 6.0265296e-04 8.4627224e-03 
1.8297300e-04 5.5871659e-04 8.3108945e-03 
1.9671145e-04 6.0293742e-04 8.2204547e-03 
-1.5315571e-05 1.5598013e-04 2.2698248e-02 
-1.6564392e-05 1.4538971e-04 2.2424418e-02 
-1.9796087e-05 1.2846479e-04 2.2666499e-02 
1.5740968e-04 3.9624891e-04 3.1147792e-03 
1.7191652e-04 4.5318718e-04 3.3125910e-03 
1.5863542e-04 4.0154054e-04 3.2847740e-03 
1.1880675e-04 2.7932998e-04 2.6602484e-03 
1.3898825e-04 3.3642046e-04 2.7819544e-03 
1.2589322e-04 3.0090220e-04 2.8519083e-03 
9.7283655e-06 1.3912121e-04 1.8248342e-02 
3.3995941e-05 2.2303162e-04 1.8175909e-02 
2.5584524e-05 1.9515483e-04 1.8322071e-02 
2.5726482e-04 8.7700807e-04 8.1186071e-03 
2.5622497e-04 8.7528134e-04 7.4838740e-03 
2.6194772e-04 9.2196913e-04 7.7734846e-03 
7.5510752e-07 -2.9278254e-07 -8.0857926e-06 
-4.1066372e-08 -5.3311140e-07 -8.1428707e-06 
-3.1637786e-08 -5.1910467e-07 -8.3472269e-06 
1.1045518e-05 1.4511139e-05 1.1414478e-04 
6.1231940e-06 8.0291047e-06 1.1842764e-04 
6.8217196e-06 8.7648223e-06 1.1022900e-04 
-5.4486973e-05 2.4940804e-04 5.0054345e-02 
-4.4118082e-05 3.0736392e-04 4.9880072e-02 
-5.5257122e-05 2.3971737e-04 4.9586002e-02 
1.3545953e-04 6.1541935e-04 1.9898999e-02 
1.5368770e-04 6.8429217e-04 1.9871097e-02 
2.1612850e-05 8.7693697e-05 7.3957588e-03 
6.8451427e-06 4.7922407e-05 7.3439055e-03 
3.2504267e-05 1.1630853e-04 7.3410105e-03 
1.5441467e-04 5.7258620e-04 1.4109160e-02 
1.3020496e-04 4.9287197e-04 1.4160274e-02 
1.4423026e-04 5.3649914e-04 1.3987084e-02 
-5.6003533e-05 -5.5480422e-07 3.0986860e-02 
-2.4000181e-05 1.4298363e-04 3.1021168e-02 
-5.6240180e-05 -4.7720437e-07 3.1113669e-02 
-4.5139292e-05 4.9986549e-05 2.9039517e-02 
-4.3003824e-05 6.1267252e-05 2.8937146e-02 
-4.4913242e-05 4.9884526e-05 2.8921684e-02 
8.3856521e-06 2.7675749e-05 2.9126406e-03 
9.2312011e-06 2.9218681e-05 2.8652858e-03 
2.0004847e-05 5.3538868e-05 2.8983245e-03 
1.8298598e-04 1.1504835e-03 1.7676689e-02 
1.9672341e-04 1.2041967e-03 1.8000558e-02 
1.9037744e-04 1.1719848e-03 1.7017301e-02 
2.4372707e-04 8.1157166e-04 6.0596988e-03 
2.4253358e-04 7.6902530e-04 6.3672699e-03 
2.3870752e-04 7.6854497e-04 5.7702232e-03 
2.5801355e-04 8.8092283e-04 9.3479129e-03 
2.6594463e-04 9.2870527e-04 9.0520000e-03 
2.6828609e-04 9.5247442e-04 9.6751032e-03 
2.0027085e-06 4.8818983e-05 9.6279150e-03 
2.0454702e-06 4.9659084e-05 9.7209755e-03 
-1.8086803e-05 -8.2009519e-06 9.6548861e-03 
7.2826660e-06 2.9321807e-04 2.2942740e-02 
-6.6652451e-06 2.1089378e-04 2.3013592e-02 
3.3726910e-06 2.7562186e-04 2.3431068e-02 
-5.8329556e-06 2.7267315e-05 3.1077513e-03 
-5.8736105e-06 2.9098330e-05 3.1950693e-03 
-5.2745049e-06 4.4725570e-05 3.2207002e-03 
8.9073226e-05 7.5236690e-04 3.5143856e-02 
7.3629162e-05 6.7914114e-04 3.5347782e-02 
7.3705509e-05 6.7210040e-04 3.5007358e-02 
1.7173165e-04 7.6195167e-04 2.0112738e-02 
-6.5415654e-05 3.2665932e-06 3.5798702e-02 
-4.2949279e-05 1.1427292e-04 3.5871901e-02 
-6.5592722e-05 3.3352987e-06 3.5885099e-02 
-3.9618844e-05 4.6996047e-05 2.6008448e-02 
-3.7978010e-05 5.5791130e-05 2.5926936e-02 
-3.9389270e-05 4.6866226e-05 2.5872046e-02 
-3.2025167e-05 4.2158808e-05 2.1594416e-02 
-2.9715968e-05 5.5400866e-05 2.1521756e-02 
-3.1827552e-05 4.2027812e-05 2.1469455e-02 
-7.2847790e-05 1.3658474e-04 4.9373206e-02 
-6.4946726e-05 1.8280877e-04 4.9444411e-02 
-6.8719761e-05 1.5729404e-04 4.9112655e-02 
9.4887306e-05 2.2348242e-04 2.7843995e-03 
9.4873001e-05 2.2226029e-04 2.7121361e-03 
1.0796188e-04 2.5431396e-04 2.7637589e-03 
1.3846463e-04 3.3576982e-04 2.9223100e-03 
1.1867699e-04 2.8511189e-04 3.0033092e-03 
-1.4221289e-05 2.8418412e-04 3.7695732e-02 
-2.3373061e-05 2.3647546e-04 3.7623551e-02 
-8.2955303e-06 3.1264534e-04 3.7590869e-02 
-1.9204013e-05 2.5591158e-04 3.7505239e-02 
-3.8293365e-05 1.5963765e-04 3.7545841e-02 
-3.2206819e-05 1.8891523e-04 3.7432499e-02 
1.5882052e-04 9.0188737e-04 4.9860831e-03 
1.7632202e-04 9.4287505e-04 5.5159931e-03 
6.8716836e-05 2.3077526e-04 8.8357935e-03 
8.8175097e-05 2.8507673e-04 8.7535158e-03 
1.1007417e-04 3.4913578e-04 8.8691907e-03 
3.0960553e-05 1.6625146e-04 1.3551142e-02 
4.1655898e-05 1.9931617e-04 1.3482320e-02 
5.4199994e-05 2.3946755e-04 1.3543068e-02 
5.4959951e-06 5.7497302e-05 9.4459970e-03 
2.9351490e-06 5.0734812e-05 9.5278295e-03 
-1.7678296e-05 -8.1578437e-06 9.4629033e-03 
-2.2995078e-05 6.1613988e-05 1.8362256e-02 
-2.3112485e-05 5.9483304e-05 1.8251074e-02 
-2.4566727e-05 5.0829171e-05 1.8297769e-02 
-6.9844071e-05 1.1283303e-04 4.5957737e-02 
-7.1092720e-05 1.0246757e-04 4.5704246e-02 
-7.3035677e-05 9.2987560e-05 4.5844875e-02 